s 0.179336133 _0_ RTR  --- 0 message 32 [0.00 0 0] [energy 100.000000] ------- [0:255 -1:255 32 0] 
M 0.20000 0 (5.00, 105.00, 0.00), (5.00, 105.00), 0.00
M 0.20000 1 (5.00, 205.00, 0.00), (5.00, 205.00), 0.00
M 0.20000 2 (5.00, 305.00, 0.00), (5.00, 305.00), 0.00
M 0.20000 3 (155.00, 205.00, 0.00), (155.00, 205.00), 0.00
M 0.20000 4 (305.00, 105.00, 0.00), (305.00, 105.00), 0.00
M 0.20000 5 (305.00, 205.00, 0.00), (305.00, 205.00), 0.00
M 0.20000 6 (305.00, 305.00, 0.00), (305.00, 305.00), 0.00
s 0.200000000 _0_ AGT  --- 1 tcp 40 [0.00 0 0] [energy 100.000000] ------- [0:0 6:0 32 0] [0 0] 0 0
r 0.200000000 _0_ RTR  --- 1 tcp 40 [0.00 0 0] [energy 100.000000] ------- [0:0 6:0 32 0] [0 0] 0 0
s 0.200000000 _1_ AGT  --- 2 tcp 40 [0.00 0 0] [energy 100.000000] ------- [1:0 5:0 32 0] [0 0] 0 0
r 0.200000000 _1_ RTR  --- 2 tcp 40 [0.00 0 0] [energy 100.000000] ------- [1:0 5:0 32 0] [0 0] 0 0
s 0.200000000 _2_ AGT  --- 3 tcp 40 [0.00 0 0] [energy 100.000000] ------- [2:0 4:0 32 0] [0 0] 0 0
r 0.200000000 _2_ RTR  --- 3 tcp 40 [0.00 0 0] [energy 100.000000] ------- [2:0 4:0 32 0] [0 0] 0 0
s 0.212361133 _0_ MAC  --- 0 message 32 [0.00 -1 0] [energy 100.000000] ------- [0:255 -1:255 32 0] 
r 0.255361467 _1_ MAC  --- 0 message 32 [0.00 -1 0] [energy 99.994691] ------- [0:255 -1:255 32 0] 
r 0.255361734 _3_ MAC  --- 0 message 32 [0.00 -1 0] [energy 99.994691] ------- [0:255 -1:255 32 0] 
r 0.255361800 _2_ MAC  --- 0 message 32 [0.00 -1 0] [energy 99.994691] ------- [0:255 -1:255 32 0] 
r 0.255386467 _1_ RTR  --- 0 message 32 [0.00 -1 0] [energy 99.994691] ------- [0:255 -1:255 32 0] 
r 0.255386734 _3_ RTR  --- 0 message 32 [0.00 -1 0] [energy 99.994691] ------- [0:255 -1:255 32 0] 
r 0.255386800 _2_ RTR  --- 0 message 32 [0.00 -1 0] [energy 99.994691] ------- [0:255 -1:255 32 0] 
s 0.469631449 _5_ RTR  --- 4 message 32 [0.00 0 0] [energy 99.994691] ------- [5:255 -1:255 32 0] 
s 0.513656449 _5_ MAC  --- 4 message 32 [0.00 -1 5] [energy 99.994691] ------- [5:255 -1:255 32 0] 
r 0.556656783 _4_ MAC  --- 4 message 32 [0.00 -1 5] [energy 99.987159] ------- [5:255 -1:255 32 0] 
r 0.556656783 _6_ MAC  --- 4 message 32 [0.00 -1 5] [energy 99.987159] ------- [5:255 -1:255 32 0] 
r 0.556656949 _3_ MAC  --- 4 message 32 [0.00 -1 5] [energy 99.987159] ------- [5:255 -1:255 32 0] 
r 0.556681783 _4_ RTR  --- 4 message 32 [0.00 -1 5] [energy 99.987159] ------- [5:255 -1:255 32 0] 
r 0.556681783 _6_ RTR  --- 4 message 32 [0.00 -1 5] [energy 99.987159] ------- [5:255 -1:255 32 0] 
r 0.556681949 _3_ RTR  --- 4 message 32 [0.00 -1 5] [energy 99.987159] ------- [5:255 -1:255 32 0] 
s 0.634520820 _3_ RTR  --- 5 message 32 [0.00 0 0] [energy 99.987159] ------- [3:255 -1:255 32 0] 
s 0.646545820 _3_ MAC  --- 5 message 32 [0.00 -1 3] [energy 99.987159] ------- [3:255 -1:255 32 0] 
r 0.689546320 _1_ MAC  --- 5 message 32 [0.00 -1 3] [energy 99.983836] ------- [3:255 -1:255 32 0] 
r 0.689546320 _5_ MAC  --- 5 message 32 [0.00 -1 3] [energy 99.983836] ------- [3:255 -1:255 32 0] 
r 0.689546421 _2_ MAC  --- 5 message 32 [0.00 -1 3] [energy 99.983836] ------- [3:255 -1:255 32 0] 
r 0.689546421 _0_ MAC  --- 5 message 32 [0.00 -1 3] [energy 99.983836] ------- [3:255 -1:255 32 0] 
r 0.689546421 _4_ MAC  --- 5 message 32 [0.00 -1 3] [energy 99.983836] ------- [3:255 -1:255 32 0] 
r 0.689546421 _6_ MAC  --- 5 message 32 [0.00 -1 3] [energy 99.983836] ------- [3:255 -1:255 32 0] 
r 0.689571320 _1_ RTR  --- 5 message 32 [0.00 -1 3] [energy 99.983836] ------- [3:255 -1:255 32 0] 
r 0.689571320 _5_ RTR  --- 5 message 32 [0.00 -1 3] [energy 99.983836] ------- [3:255 -1:255 32 0] 
r 0.689571421 _2_ RTR  --- 5 message 32 [0.00 -1 3] [energy 99.983836] ------- [3:255 -1:255 32 0] 
r 0.689571421 _0_ RTR  --- 5 message 32 [0.00 -1 3] [energy 99.983836] ------- [3:255 -1:255 32 0] 
r 0.689571421 _4_ RTR  --- 5 message 32 [0.00 -1 3] [energy 99.983836] ------- [3:255 -1:255 32 0] 
r 0.689571421 _6_ RTR  --- 5 message 32 [0.00 -1 3] [energy 99.983836] ------- [3:255 -1:255 32 0] 
s 0.883288153 _1_ RTR  --- 6 message 32 [0.00 0 0] [energy 99.983836] ------- [1:255 -1:255 32 0] 
s 0.955313153 _1_ MAC  --- 6 message 32 [0.00 -1 1] [energy 99.983836] ------- [1:255 -1:255 32 0] 
r 0.998313486 _0_ MAC  --- 6 message 32 [0.00 -1 1] [energy 99.976117] ------- [1:255 -1:255 32 0] 
r 0.998313486 _2_ MAC  --- 6 message 32 [0.00 -1 1] [energy 99.976117] ------- [1:255 -1:255 32 0] 
r 0.998313653 _3_ MAC  --- 6 message 32 [0.00 -1 1] [energy 99.976117] ------- [1:255 -1:255 32 0] 
r 0.998338486 _0_ RTR  --- 6 message 32 [0.00 -1 1] [energy 99.976117] ------- [1:255 -1:255 32 0] 
r 0.998338486 _2_ RTR  --- 6 message 32 [0.00 -1 1] [energy 99.976117] ------- [1:255 -1:255 32 0] 
r 0.998338653 _3_ RTR  --- 6 message 32 [0.00 -1 1] [energy 99.976117] ------- [1:255 -1:255 32 0] 
N -t 1.000000 -n 0 -e 99.975000
N -t 1.000000 -n 1 -e 99.975000
N -t 1.000000 -n 2 -e 99.975000
N -t 1.000000 -n 3 -e 99.975000
N -t 1.000000 -n 4 -e 99.975000
N -t 1.000000 -n 5 -e 99.975000
N -t 1.000000 -n 6 -e 99.975000
s 1.280311166 _6_ RTR  --- 7 message 32 [0.00 0 0] [energy 99.975000] ------- [6:255 -1:255 32 0] 
s 1.306336166 _6_ MAC  --- 7 message 32 [0.00 -1 6] [energy 99.975000] ------- [6:255 -1:255 32 0] 
r 1.349336499 _5_ MAC  --- 7 message 32 [0.00 -1 6] [energy 99.967342] ------- [6:255 -1:255 32 0] 
r 1.349336767 _3_ MAC  --- 7 message 32 [0.00 -1 6] [energy 99.967342] ------- [6:255 -1:255 32 0] 
r 1.349336833 _4_ MAC  --- 7 message 32 [0.00 -1 6] [energy 99.967342] ------- [6:255 -1:255 32 0] 
r 1.349361499 _5_ RTR  --- 7 message 32 [0.00 -1 6] [energy 99.967342] ------- [6:255 -1:255 32 0] 
r 1.349361767 _3_ RTR  --- 7 message 32 [0.00 -1 6] [energy 99.967342] ------- [6:255 -1:255 32 0] 
r 1.349361833 _4_ RTR  --- 7 message 32 [0.00 -1 6] [energy 99.967342] ------- [6:255 -1:255 32 0] 
s 1.602972066 _2_ RTR  --- 8 message 32 [0.00 0 0] [energy 99.967342] ------- [2:255 -1:255 32 0] 
s 1.641350355 _4_ RTR  --- 9 message 32 [0.00 0 0] [energy 99.967342] ------- [4:255 -1:255 32 0] 
s 1.652997066 _2_ MAC  --- 8 message 32 [0.00 -1 2] [energy 99.967342] ------- [2:255 -1:255 32 0] 
r 1.695997400 _1_ MAC  --- 8 message 32 [0.00 -1 2] [energy 99.958675] ------- [2:255 -1:255 32 0] 
r 1.695997667 _3_ MAC  --- 8 message 32 [0.00 -1 2] [energy 99.958675] ------- [2:255 -1:255 32 0] 
r 1.695997733 _0_ MAC  --- 8 message 32 [0.00 -1 2] [energy 99.958675] ------- [2:255 -1:255 32 0] 
r 1.696022400 _1_ RTR  --- 8 message 32 [0.00 -1 2] [energy 99.958675] ------- [2:255 -1:255 32 0] 
r 1.696022667 _3_ RTR  --- 8 message 32 [0.00 -1 2] [energy 99.958675] ------- [2:255 -1:255 32 0] 
r 1.696022733 _0_ RTR  --- 8 message 32 [0.00 -1 2] [energy 99.958675] ------- [2:255 -1:255 32 0] 
s 1.806998268 _4_ MAC  --- 9 message 32 [0.00 -1 4] [energy 99.958675] ------- [4:255 -1:255 32 0] 
r 1.849998602 _5_ MAC  --- 9 message 32 [0.00 -1 4] [energy 99.954825] ------- [4:255 -1:255 32 0] 
r 1.849998869 _3_ MAC  --- 9 message 32 [0.00 -1 4] [energy 99.954825] ------- [4:255 -1:255 32 0] 
r 1.849998935 _6_ MAC  --- 9 message 32 [0.00 -1 4] [energy 99.954825] ------- [4:255 -1:255 32 0] 
r 1.850023602 _5_ RTR  --- 9 message 32 [0.00 -1 4] [energy 99.954825] ------- [4:255 -1:255 32 0] 
r 1.850023869 _3_ RTR  --- 9 message 32 [0.00 -1 4] [energy 99.954825] ------- [4:255 -1:255 32 0] 
r 1.850023935 _6_ RTR  --- 9 message 32 [0.00 -1 4] [energy 99.954825] ------- [4:255 -1:255 32 0] 
s 6.200000000 _0_ AGT  --- 10 tcp 40 [0.00 0 0] [energy 99.954825] ------- [0:0 6:0 32 0] [0 0] 0 0
r 6.200000000 _0_ RTR  --- 10 tcp 40 [0.00 0 0] [energy 99.954825] ------- [0:0 6:0 32 0] [0 0] 0 0
s 6.200000000 _1_ AGT  --- 11 tcp 40 [0.00 0 0] [energy 99.954825] ------- [1:0 5:0 32 0] [0 0] 0 0
r 6.200000000 _1_ RTR  --- 11 tcp 40 [0.00 0 0] [energy 99.954825] ------- [1:0 5:0 32 0] [0 0] 0 0
s 6.200000000 _2_ AGT  --- 12 tcp 40 [0.00 0 0] [energy 99.954825] ------- [2:0 4:0 32 0] [0 0] 0 0
r 6.200000000 _2_ RTR  --- 12 tcp 40 [0.00 0 0] [energy 99.954825] ------- [2:0 4:0 32 0] [0 0] 0 0
N -t 11.000000 -n 0 -e 99.725000
N -t 11.000000 -n 1 -e 99.725000
N -t 11.000000 -n 2 -e 99.725000
N -t 11.000000 -n 3 -e 99.725000
N -t 11.000000 -n 4 -e 99.725000
N -t 11.000000 -n 5 -e 99.725000
N -t 11.000000 -n 6 -e 99.725000
s 12.262159956 _1_ RTR  --- 13 message 32 [0.00 0 0] [energy 99.725000] ------- [1:255 -1:255 32 0] 
s 12.263009053 _3_ RTR  --- 14 message 32 [0.00 0 0] [energy 99.725000] ------- [3:255 -1:255 32 0] 
s 12.264436255 _2_ RTR  --- 15 message 32 [0.00 0 0] [energy 99.725000] ------- [2:255 -1:255 32 0] 
s 12.274461255 _2_ MAC  --- 15 message 32 [0.00 -1 2] [energy 99.725000] ------- [2:255 -1:255 32 0] 
r 12.317461588 _1_ MAC  --- 15 message 32 [0.00 -1 2] [energy 99.693138] ------- [2:255 -1:255 32 0] 
r 12.317461855 _3_ MAC  --- 15 message 32 [0.00 -1 2] [energy 99.693138] ------- [2:255 -1:255 32 0] 
r 12.317461921 _0_ MAC  --- 15 message 32 [0.00 -1 2] [energy 99.693138] ------- [2:255 -1:255 32 0] 
r 12.317486588 _1_ RTR  --- 15 message 32 [0.00 -1 2] [energy 99.693138] ------- [2:255 -1:255 32 0] 
r 12.317486855 _3_ RTR  --- 15 message 32 [0.00 -1 2] [energy 99.693138] ------- [2:255 -1:255 32 0] 
r 12.317486921 _0_ RTR  --- 15 message 32 [0.00 -1 2] [energy 99.693138] ------- [2:255 -1:255 32 0] 
s 12.355461855 _3_ MAC  --- 14 message 32 [0.00 -1 3] [energy 99.693138] ------- [3:255 -1:255 32 0] 
r 12.398462355 _1_ MAC  --- 14 message 32 [0.00 -1 3] [energy 99.691113] ------- [3:255 -1:255 32 0] 
r 12.398462355 _5_ MAC  --- 14 message 32 [0.00 -1 3] [energy 99.691113] ------- [3:255 -1:255 32 0] 
r 12.398462456 _2_ MAC  --- 14 message 32 [0.00 -1 3] [energy 99.691113] ------- [3:255 -1:255 32 0] 
r 12.398462456 _0_ MAC  --- 14 message 32 [0.00 -1 3] [energy 99.691113] ------- [3:255 -1:255 32 0] 
r 12.398462456 _4_ MAC  --- 14 message 32 [0.00 -1 3] [energy 99.691113] ------- [3:255 -1:255 32 0] 
r 12.398462456 _6_ MAC  --- 14 message 32 [0.00 -1 3] [energy 99.691113] ------- [3:255 -1:255 32 0] 
r 12.398487355 _1_ RTR  --- 14 message 32 [0.00 -1 3] [energy 99.691113] ------- [3:255 -1:255 32 0] 
r 12.398487355 _5_ RTR  --- 14 message 32 [0.00 -1 3] [energy 99.691113] ------- [3:255 -1:255 32 0] 
r 12.398487456 _2_ RTR  --- 14 message 32 [0.00 -1 3] [energy 99.691113] ------- [3:255 -1:255 32 0] 
r 12.398487456 _0_ RTR  --- 14 message 32 [0.00 -1 3] [energy 99.691113] ------- [3:255 -1:255 32 0] 
r 12.398487456 _4_ RTR  --- 14 message 32 [0.00 -1 3] [energy 99.691113] ------- [3:255 -1:255 32 0] 
r 12.398487456 _6_ RTR  --- 14 message 32 [0.00 -1 3] [energy 99.691113] ------- [3:255 -1:255 32 0] 
s 12.422462355 _1_ MAC  --- 13 message 32 [0.00 -1 1] [energy 99.691113] ------- [1:255 -1:255 32 0] 
r 12.465462689 _0_ MAC  --- 13 message 32 [0.00 -1 1] [energy 99.689438] ------- [1:255 -1:255 32 0] 
r 12.465462689 _2_ MAC  --- 13 message 32 [0.00 -1 1] [energy 99.689438] ------- [1:255 -1:255 32 0] 
r 12.465462855 _3_ MAC  --- 13 message 32 [0.00 -1 1] [energy 99.689438] ------- [1:255 -1:255 32 0] 
r 12.465487689 _0_ RTR  --- 13 message 32 [0.00 -1 1] [energy 99.689438] ------- [1:255 -1:255 32 0] 
r 12.465487689 _2_ RTR  --- 13 message 32 [0.00 -1 1] [energy 99.689438] ------- [1:255 -1:255 32 0] 
r 12.465487855 _3_ RTR  --- 13 message 32 [0.00 -1 1] [energy 99.689438] ------- [1:255 -1:255 32 0] 
s 12.557802096 _6_ RTR  --- 17 message 32 [0.00 0 0] [energy 99.689438] ------- [6:255 -1:255 32 0] 
s 12.565595261 _4_ RTR  --- 16 message 32 [0.00 0 0] [energy 99.689438] ------- [4:255 -1:255 32 0] 
s 12.592620261 _4_ MAC  --- 16 message 32 [0.00 -1 4] [energy 99.689438] ------- [4:255 -1:255 32 0] 
r 12.635620594 _5_ MAC  --- 16 message 32 [0.00 -1 4] [energy 99.685184] ------- [4:255 -1:255 32 0] 
r 12.635620862 _3_ MAC  --- 16 message 32 [0.00 -1 4] [energy 99.685184] ------- [4:255 -1:255 32 0] 
r 12.635620927 _6_ MAC  --- 16 message 32 [0.00 -1 4] [energy 99.685184] ------- [4:255 -1:255 32 0] 
r 12.635645594 _5_ RTR  --- 16 message 32 [0.00 -1 4] [energy 99.685184] ------- [4:255 -1:255 32 0] 
r 12.635645862 _3_ RTR  --- 16 message 32 [0.00 -1 4] [energy 99.685184] ------- [4:255 -1:255 32 0] 
r 12.635645927 _6_ RTR  --- 16 message 32 [0.00 -1 4] [energy 99.685184] ------- [4:255 -1:255 32 0] 
s 12.681620927 _6_ MAC  --- 17 message 32 [0.00 -1 6] [energy 99.685184] ------- [6:255 -1:255 32 0] 
s 12.690802456 _0_ RTR  --- 19 message 32 [0.00 0 0] [energy 99.682959] ------- [0:255 -1:255 32 0] 
s 12.692927948 _5_ RTR  --- 18 message 32 [0.00 0 0] [energy 99.682959] ------- [5:255 -1:255 32 0] 
r 12.724621261 _5_ MAC  --- 17 message 32 [0.00 -1 6] [energy 99.682959] ------- [6:255 -1:255 32 0] 
r 12.724621528 _3_ MAC  --- 17 message 32 [0.00 -1 6] [energy 99.682959] ------- [6:255 -1:255 32 0] 
r 12.724621594 _4_ MAC  --- 17 message 32 [0.00 -1 6] [energy 99.682959] ------- [6:255 -1:255 32 0] 
r 12.724646261 _5_ RTR  --- 17 message 32 [0.00 -1 6] [energy 99.682959] ------- [6:255 -1:255 32 0] 
r 12.724646528 _3_ RTR  --- 17 message 32 [0.00 -1 6] [energy 99.682959] ------- [6:255 -1:255 32 0] 
r 12.724646594 _4_ RTR  --- 17 message 32 [0.00 -1 6] [energy 99.682959] ------- [6:255 -1:255 32 0] 
s 12.781621261 _5_ MAC  --- 18 message 32 [0.00 -1 5] [energy 99.682959] ------- [5:255 -1:255 32 0] 
r 12.824621594 _4_ MAC  --- 18 message 32 [0.00 -1 5] [energy 99.680459] ------- [5:255 -1:255 32 0] 
r 12.824621594 _6_ MAC  --- 18 message 32 [0.00 -1 5] [energy 99.680459] ------- [5:255 -1:255 32 0] 
r 12.824621761 _3_ MAC  --- 18 message 32 [0.00 -1 5] [energy 99.680459] ------- [5:255 -1:255 32 0] 
r 12.824646594 _4_ RTR  --- 18 message 32 [0.00 -1 5] [energy 99.680459] ------- [5:255 -1:255 32 0] 
r 12.824646594 _6_ RTR  --- 18 message 32 [0.00 -1 5] [energy 99.680459] ------- [5:255 -1:255 32 0] 
r 12.824646761 _3_ RTR  --- 18 message 32 [0.00 -1 5] [energy 99.680459] ------- [5:255 -1:255 32 0] 
s 12.924622315 _0_ MAC  --- 19 message 32 [0.00 -1 0] [energy 99.680459] ------- [0:255 -1:255 32 0] 
r 12.967622648 _1_ MAC  --- 19 message 32 [0.00 -1 0] [energy 99.676884] ------- [0:255 -1:255 32 0] 
r 12.967622916 _3_ MAC  --- 19 message 32 [0.00 -1 0] [energy 99.676884] ------- [0:255 -1:255 32 0] 
r 12.967622982 _2_ MAC  --- 19 message 32 [0.00 -1 0] [energy 99.676884] ------- [0:255 -1:255 32 0] 
r 12.967647648 _1_ RTR  --- 19 message 32 [0.00 -1 0] [energy 99.676884] ------- [0:255 -1:255 32 0] 
r 12.967647916 _3_ RTR  --- 19 message 32 [0.00 -1 0] [energy 99.676884] ------- [0:255 -1:255 32 0] 
r 12.967647982 _2_ RTR  --- 19 message 32 [0.00 -1 0] [energy 99.676884] ------- [0:255 -1:255 32 0] 
s 13.258005041 _2_ RTR  --- 22 message 56 [0.00 0 0] [energy 99.676884] ------- [2:255 -1:255 32 0] 
s 13.260834686 _1_ RTR  --- 20 message 44 [0.00 0 0] [energy 99.676884] ------- [1:255 -1:255 32 0] 
s 13.264153291 _3_ RTR  --- 21 message 56 [0.00 0 0] [energy 99.676884] ------- [3:255 -1:255 32 0] 
s 13.279859686 _1_ MAC  --- 20 message 44 [0.00 -1 1] [energy 99.676884] ------- [1:255 -1:255 32 0] 
r 13.322860020 _0_ MAC  --- 20 message 44 [0.00 -1 1] [energy 99.668003] ------- [1:255 -1:255 32 0] 
r 13.322860020 _2_ MAC  --- 20 message 44 [0.00 -1 1] [energy 99.668003] ------- [1:255 -1:255 32 0] 
r 13.322860186 _3_ MAC  --- 20 message 44 [0.00 -1 1] [energy 99.668003] ------- [1:255 -1:255 32 0] 
r 13.322885020 _0_ RTR  --- 20 message 44 [0.00 -1 1] [energy 99.668003] ------- [1:255 -1:255 32 0] 
r 13.322885020 _2_ RTR  --- 20 message 44 [0.00 -1 1] [energy 99.668003] ------- [1:255 -1:255 32 0] 
r 13.322885186 _3_ RTR  --- 20 message 44 [0.00 -1 1] [energy 99.668003] ------- [1:255 -1:255 32 0] 
s 13.337860186 _3_ MAC  --- 21 message 56 [0.00 -1 3] [energy 99.668003] ------- [3:255 -1:255 32 0] 
r 13.380860686 _1_ MAC  --- 21 message 56 [0.00 -1 3] [energy 99.666553] ------- [3:255 -1:255 32 0] 
r 13.380860686 _5_ MAC  --- 21 message 56 [0.00 -1 3] [energy 99.666553] ------- [3:255 -1:255 32 0] 
r 13.380860787 _2_ MAC  --- 21 message 56 [0.00 -1 3] [energy 99.666553] ------- [3:255 -1:255 32 0] 
r 13.380860787 _0_ MAC  --- 21 message 56 [0.00 -1 3] [energy 99.666553] ------- [3:255 -1:255 32 0] 
r 13.380860787 _4_ MAC  --- 21 message 56 [0.00 -1 3] [energy 99.666553] ------- [3:255 -1:255 32 0] 
r 13.380860787 _6_ MAC  --- 21 message 56 [0.00 -1 3] [energy 99.666553] ------- [3:255 -1:255 32 0] 
r 13.380885686 _1_ RTR  --- 21 message 56 [0.00 -1 3] [energy 99.666553] ------- [3:255 -1:255 32 0] 
s 13.380885686 _1_ RTR  --- 2 tcp 80 [0.00 0 0] [energy 99.666553] ------- [1:0 5:0 32 3] [0 0] 0 0
s 13.380885686 _1_ RTR  --- 11 tcp 80 [0.00 0 0] [energy 99.666553] ------- [1:0 5:0 32 3] [0 0] 0 0
D 13.380885686 _1_ IFQ  ARP 2 tcp 80 [0.00 0 1] [energy 99.666553] ------- [1:0 5:0 32 3] [0 0] 0 0
r 13.380885686 _5_ RTR  --- 21 message 56 [0.00 -1 3] [energy 99.666553] ------- [3:255 -1:255 32 0] 
r 13.380885787 _2_ RTR  --- 21 message 56 [0.00 -1 3] [energy 99.666553] ------- [3:255 -1:255 32 0] 
r 13.380885787 _0_ RTR  --- 21 message 56 [0.00 -1 3] [energy 99.666553] ------- [3:255 -1:255 32 0] 
r 13.380885787 _4_ RTR  --- 21 message 56 [0.00 -1 3] [energy 99.666553] ------- [3:255 -1:255 32 0] 
r 13.380885787 _6_ RTR  --- 21 message 56 [0.00 -1 3] [energy 99.666553] ------- [3:255 -1:255 32 0] 
s 13.404890686 _1_ MAC  --- 0 ARP 28 [0.00 -1 1] [energy 99.666553] ------- [REQUEST 1/1 0/3]
r 13.447891020 _0_ MAC  --- 0 ARP 28 [0.00 -1 1] [energy 99.664878] ------- [REQUEST 1/1 0/3]
r 13.447891020 _2_ MAC  --- 0 ARP 28 [0.00 -1 1] [energy 99.664878] ------- [REQUEST 1/1 0/3]
r 13.447891186 _3_ MAC  --- 0 ARP 28 [0.00 -1 1] [energy 99.664878] ------- [REQUEST 1/1 0/3]
s 13.461890686 _1_ MAC  --- 0 ARP 28 [0.00 -1 1] [energy 99.664878] ------- [REQUEST 1/1 0/3]
s 13.466423583 _3_ RTR  --- 23 message 80 [0.00 0 0] [energy 99.663453] ------- [3:255 -1:255 32 0] 
r 13.504891020 _0_ MAC  --- 0 ARP 28 [0.00 -1 1] [energy 99.663453] ------- [REQUEST 1/1 0/3]
r 13.504891020 _2_ MAC  --- 0 ARP 28 [0.00 -1 1] [energy 99.663453] ------- [REQUEST 1/1 0/3]
r 13.504891186 _3_ MAC  --- 0 ARP 28 [0.00 -1 1] [energy 99.663453] ------- [REQUEST 1/1 0/3]
s 13.516891020 _2_ MAC  --- 22 message 56 [0.00 -1 2] [energy 99.663453] ------- [2:255 -1:255 32 0] 
s 13.557183117 _4_ RTR  --- 24 message 56 [0.00 0 0] [energy 99.662078] ------- [4:255 -1:255 32 0] 
r 13.559891353 _1_ MAC  --- 22 message 56 [0.00 -1 2] [energy 99.662078] ------- [2:255 -1:255 32 0] 
r 13.559891620 _3_ MAC  --- 22 message 56 [0.00 -1 2] [energy 99.662078] ------- [2:255 -1:255 32 0] 
r 13.559891686 _0_ MAC  --- 22 message 56 [0.00 -1 2] [energy 99.662078] ------- [2:255 -1:255 32 0] 
r 13.559916353 _1_ RTR  --- 22 message 56 [0.00 -1 2] [energy 99.662078] ------- [2:255 -1:255 32 0] 
r 13.559916620 _3_ RTR  --- 22 message 56 [0.00 -1 2] [energy 99.662078] ------- [2:255 -1:255 32 0] 
r 13.559916686 _0_ RTR  --- 22 message 56 [0.00 -1 2] [energy 99.662078] ------- [2:255 -1:255 32 0] 
s 13.565332837 _6_ RTR  --- 25 message 44 [0.00 0 0] [energy 99.662078] ------- [6:255 -1:255 32 0] 
s 13.590891620 _3_ MAC  --- 0 RTS 10 [0.07 1 3] [energy 99.662078] 
s 13.601892120 _1_ MAC  --- 0 CTS 10 [0.06 3 1] [energy 99.660228] 
s 13.612892620 _3_ MAC  --- 0 ARP 28 [0.01 1 3] [energy 99.659953] ------- [REPLY 3/3 1/1]
s 13.655893120 _1_ MAC  --- 0 ACK 10 [0.00 3 1] [energy 99.659678] 
r 13.655893120 _1_ MAC  --- 0 ARP 28 [0.01 1 3] [energy 99.658603] ------- [REPLY 3/3 1/1]
s 13.682893620 _3_ MAC  --- 23 message 80 [0.00 -1 3] [energy 99.658603] ------- [3:255 -1:255 32 0] 
s 13.690453322 _5_ RTR  --- 26 message 44 [0.00 0 0] [energy 99.657928] ------- [5:255 -1:255 32 0] 
s 13.697715423 _0_ RTR  --- 27 message 44 [0.00 0 0] [energy 99.657928] ------- [0:255 -1:255 32 0] 
s 13.706328552 _4_ RTR  --- 28 message 68 [0.00 0 0] [energy 99.657928] ------- [4:255 -1:255 32 0] 
r 13.725894120 _1_ MAC  --- 23 message 80 [0.00 -1 3] [energy 99.657928] ------- [3:255 -1:255 32 0] 
r 13.725894120 _5_ MAC  --- 23 message 80 [0.00 -1 3] [energy 99.657928] ------- [3:255 -1:255 32 0] 
r 13.725894221 _2_ MAC  --- 23 message 80 [0.00 -1 3] [energy 99.657928] ------- [3:255 -1:255 32 0] 
r 13.725894221 _0_ MAC  --- 23 message 80 [0.00 -1 3] [energy 99.657928] ------- [3:255 -1:255 32 0] 
r 13.725894221 _4_ MAC  --- 23 message 80 [0.00 -1 3] [energy 99.657928] ------- [3:255 -1:255 32 0] 
r 13.725894221 _6_ MAC  --- 23 message 80 [0.00 -1 3] [energy 99.657928] ------- [3:255 -1:255 32 0] 
r 13.725919120 _1_ RTR  --- 23 message 80 [0.00 -1 3] [energy 99.657928] ------- [3:255 -1:255 32 0] 
r 13.725919120 _5_ RTR  --- 23 message 80 [0.00 -1 3] [energy 99.657928] ------- [3:255 -1:255 32 0] 
r 13.725919221 _2_ RTR  --- 23 message 80 [0.00 -1 3] [energy 99.657928] ------- [3:255 -1:255 32 0] 
r 13.725919221 _0_ RTR  --- 23 message 80 [0.00 -1 3] [energy 99.657928] ------- [3:255 -1:255 32 0] 
s 13.725919221 _0_ RTR  --- 1 tcp 80 [0.00 0 0] [energy 99.657928] ------- [0:0 6:0 32 3] [0 0] 0 0
s 13.725919221 _0_ RTR  --- 10 tcp 80 [0.00 0 0] [energy 99.657928] ------- [0:0 6:0 32 3] [0 0] 0 0
D 13.725919221 _0_ IFQ  ARP 1 tcp 80 [0.00 0 0] [energy 99.657928] ------- [0:0 6:0 32 3] [0 0] 0 0
r 13.725919221 _4_ RTR  --- 23 message 80 [0.00 -1 3] [energy 99.657928] ------- [3:255 -1:255 32 0] 
r 13.725919221 _6_ RTR  --- 23 message 80 [0.00 -1 3] [energy 99.657928] ------- [3:255 -1:255 32 0] 
s 13.738894120 _5_ MAC  --- 26 message 44 [0.00 -1 5] [energy 99.657928] ------- [5:255 -1:255 32 0] 
r 13.781894454 _4_ MAC  --- 26 message 44 [0.00 -1 5] [energy 99.656528] ------- [5:255 -1:255 32 0] 
r 13.781894454 _6_ MAC  --- 26 message 44 [0.00 -1 5] [energy 99.656528] ------- [5:255 -1:255 32 0] 
r 13.781894620 _3_ MAC  --- 26 message 44 [0.00 -1 5] [energy 99.656528] ------- [5:255 -1:255 32 0] 
r 13.781919454 _4_ RTR  --- 26 message 44 [0.00 -1 5] [energy 99.656528] ------- [5:255 -1:255 32 0] 
r 13.781919454 _6_ RTR  --- 26 message 44 [0.00 -1 5] [energy 99.656528] ------- [5:255 -1:255 32 0] 
r 13.781919620 _3_ RTR  --- 26 message 44 [0.00 -1 5] [energy 99.656528] ------- [5:255 -1:255 32 0] 
s 13.824894454 _4_ MAC  --- 24 message 56 [0.00 -1 4] [energy 99.656528] ------- [4:255 -1:255 32 0] 
r 13.867894787 _5_ MAC  --- 24 message 56 [0.00 -1 4] [energy 99.654378] ------- [4:255 -1:255 32 0] 
r 13.867895055 _3_ MAC  --- 24 message 56 [0.00 -1 4] [energy 99.654378] ------- [4:255 -1:255 32 0] 
r 13.867895120 _6_ MAC  --- 24 message 56 [0.00 -1 4] [energy 99.654378] ------- [4:255 -1:255 32 0] 
r 13.867919787 _5_ RTR  --- 24 message 56 [0.00 -1 4] [energy 99.654378] ------- [4:255 -1:255 32 0] 
r 13.867920055 _3_ RTR  --- 24 message 56 [0.00 -1 4] [energy 99.654378] ------- [4:255 -1:255 32 0] 
r 13.867920120 _6_ RTR  --- 24 message 56 [0.00 -1 4] [energy 99.654378] ------- [4:255 -1:255 32 0] 
s 13.893895120 _6_ MAC  --- 25 message 44 [0.00 -1 6] [energy 99.654378] ------- [6:255 -1:255 32 0] 
r 13.936895454 _5_ MAC  --- 25 message 44 [0.00 -1 6] [energy 99.652653] ------- [6:255 -1:255 32 0] 
r 13.936895721 _3_ MAC  --- 25 message 44 [0.00 -1 6] [energy 99.652653] ------- [6:255 -1:255 32 0] 
r 13.936895787 _4_ MAC  --- 25 message 44 [0.00 -1 6] [energy 99.652653] ------- [6:255 -1:255 32 0] 
r 13.936920454 _5_ RTR  --- 25 message 44 [0.00 -1 6] [energy 99.652653] ------- [6:255 -1:255 32 0] 
r 13.936920721 _3_ RTR  --- 25 message 44 [0.00 -1 6] [energy 99.652653] ------- [6:255 -1:255 32 0] 
r 13.936920787 _4_ RTR  --- 25 message 44 [0.00 -1 6] [energy 99.652653] ------- [6:255 -1:255 32 0] 
s 13.946895721 _3_ MAC  --- 0 RTS 10 [0.07 1 3] [energy 99.652653] 
s 13.996895721 _3_ MAC  --- 0 RTS 10 [0.07 1 3] [energy 99.651328] 
s 14.007896221 _1_ MAC  --- 0 CTS 10 [0.06 3 1] [energy 99.650078] 
s 14.018896721 _3_ MAC  --- 0 ARP 28 [0.01 1 3] [energy 99.649803] ------- [REPLY 3/3 1/1]
s 14.061897221 _1_ MAC  --- 0 ACK 10 [0.00 3 1] [energy 99.649528] 
r 14.061897221 _1_ MAC  --- 0 ARP 28 [0.01 1 3] [energy 99.648453] ------- [REPLY 3/3 1/1]
s 14.067258470 _6_ RTR  --- 29 message 56 [0.00 0 0] [energy 99.648453] ------- [6:255 -1:255 32 0] 
s 14.107896221 _1_ MAC  --- 0 RTS 10 [0.07 3 1] [energy 99.648453] 
s 14.118896721 _3_ MAC  --- 0 CTS 10 [0.06 1 3] [energy 99.647303] 
s 14.122507115 _5_ RTR  --- 30 message 56 [0.00 0 0] [energy 99.647028] ------- [5:255 -1:255 32 0] 
s 14.129897221 _1_ MAC  --- 11 tcp 80 [0.01 3 1] [energy 99.647028] ------- [1:0 5:0 32 3] [0 0] 0 0
s 14.172897721 _3_ MAC  --- 0 ACK 10 [0.00 1 3] [energy 99.646753] 
r 14.172897721 _3_ MAC  --- 11 tcp 80 [0.01 3 1] [energy 99.645678] ------- [1:0 5:0 32 3] [0 0] 0 0
r 14.172922721 _3_ RTR  --- 11 tcp 80 [0.01 3 1] [energy 99.645678] ------- [1:0 5:0 32 3] [0 0] 0 0
f 14.172922721 _3_ RTR  --- 11 tcp 80 [0.01 3 1] [energy 99.645678] ------- [1:0 5:0 31 5] [0 0] 0 0
s 14.200896721 _3_ MAC  --- 0 ARP 28 [0.00 -1 3] [energy 99.645678] ------- [REQUEST 3/3 0/5]
r 14.243897221 _1_ MAC  --- 0 ARP 28 [0.00 -1 3] [energy 99.644978] ------- [REQUEST 3/3 0/5]
r 14.243897221 _5_ MAC  --- 0 ARP 28 [0.00 -1 3] [energy 99.644978] ------- [REQUEST 3/3 0/5]
r 14.243897322 _2_ MAC  --- 0 ARP 28 [0.00 -1 3] [energy 99.644978] ------- [REQUEST 3/3 0/5]
r 14.243897322 _0_ MAC  --- 0 ARP 28 [0.00 -1 3] [energy 99.644978] ------- [REQUEST 3/3 0/5]
r 14.243897322 _4_ MAC  --- 0 ARP 28 [0.00 -1 3] [energy 99.644978] ------- [REQUEST 3/3 0/5]
r 14.243897322 _6_ MAC  --- 0 ARP 28 [0.00 -1 3] [energy 99.644978] ------- [REQUEST 3/3 0/5]
s 14.259897322 _0_ MAC  --- 27 message 44 [0.00 -1 0] [energy 99.644978] ------- [0:255 -1:255 32 0] 
s 14.259897322 _4_ MAC  --- 28 message 68 [0.00 -1 4] [energy 99.644978] ------- [4:255 -1:255 32 0] 
D 14.259897923 _3_ MAC  COL 27 message 44 [0.00 -1 0] [energy 99.643503] ------- [0:255 -1:255 32 0] 
s 14.260593935 _1_ RTR  --- 31 message 56 [0.00 0 0] [energy 99.643503] ------- [1:255 -1:255 32 0] 
r 14.302897656 _1_ MAC  --- 27 message 44 [0.00 -1 0] [energy 99.643503] ------- [0:255 -1:255 32 0] 
r 14.302897656 _5_ MAC  --- 28 message 68 [0.00 -1 4] [energy 99.643503] ------- [4:255 -1:255 32 0] 
D 14.302897923 _3_ MAC  COL 28 message 68 [0.00 -1 4] [energy 99.643503] ------- [4:255 -1:255 32 0] 
r 14.302897989 _2_ MAC  --- 27 message 44 [0.00 -1 0] [energy 99.643503] ------- [0:255 -1:255 32 0] 
r 14.302897989 _6_ MAC  --- 28 message 68 [0.00 -1 4] [energy 99.643503] ------- [4:255 -1:255 32 0] 
r 14.302922656 _1_ RTR  --- 27 message 44 [0.00 -1 0] [energy 99.643503] ------- [0:255 -1:255 32 0] 
r 14.302922656 _5_ RTR  --- 28 message 68 [0.00 -1 4] [energy 99.643503] ------- [4:255 -1:255 32 0] 
r 14.302922989 _2_ RTR  --- 27 message 44 [0.00 -1 0] [energy 99.643503] ------- [0:255 -1:255 32 0] 
r 14.302922989 _6_ RTR  --- 28 message 68 [0.00 -1 4] [energy 99.643503] ------- [4:255 -1:255 32 0] 
s 14.318897322 _0_ MAC  --- 0 ARP 28 [0.00 -1 0] [energy 99.643503] ------- [REQUEST 0/0 0/3]
r 14.361897656 _1_ MAC  --- 0 ARP 28 [0.00 -1 0] [energy 99.642028] ------- [REQUEST 0/0 0/3]
r 14.361897923 _3_ MAC  --- 0 ARP 28 [0.00 -1 0] [energy 99.642028] ------- [REQUEST 0/0 0/3]
r 14.361897989 _2_ MAC  --- 0 ARP 28 [0.00 -1 0] [energy 99.642028] ------- [REQUEST 0/0 0/3]
s 14.399897656 _1_ MAC  --- 31 message 56 [0.00 -1 1] [energy 99.642028] ------- [1:255 -1:255 32 0] 
r 14.442897989 _0_ MAC  --- 31 message 56 [0.00 -1 1] [energy 99.640003] ------- [1:255 -1:255 32 0] 
r 14.442897989 _2_ MAC  --- 31 message 56 [0.00 -1 1] [energy 99.640003] ------- [1:255 -1:255 32 0] 
r 14.442898156 _3_ MAC  --- 31 message 56 [0.00 -1 1] [energy 99.640003] ------- [1:255 -1:255 32 0] 
r 14.442922989 _0_ RTR  --- 31 message 56 [0.00 -1 1] [energy 99.640003] ------- [1:255 -1:255 32 0] 
r 14.442922989 _2_ RTR  --- 31 message 56 [0.00 -1 1] [energy 99.640003] ------- [1:255 -1:255 32 0] 
r 14.442923156 _3_ RTR  --- 31 message 56 [0.00 -1 1] [energy 99.640003] ------- [1:255 -1:255 32 0] 
s 14.465828076 _3_ RTR  --- 32 message 44 [0.00 0 0] [energy 99.640003] ------- [3:255 -1:255 32 0] 
s 14.494897989 _0_ MAC  --- 0 ARP 28 [0.00 -1 0] [energy 99.640003] ------- [REQUEST 0/0 0/3]
r 14.537898322 _1_ MAC  --- 0 ARP 28 [0.00 -1 0] [energy 99.637628] ------- [REQUEST 0/0 0/3]
r 14.537898590 _3_ MAC  --- 0 ARP 28 [0.00 -1 0] [energy 99.637628] ------- [REQUEST 0/0 0/3]
r 14.537898656 _2_ MAC  --- 0 ARP 28 [0.00 -1 0] [energy 99.637628] ------- [REQUEST 0/0 0/3]
s 14.547897989 _0_ MAC  --- 0 RTS 10 [0.07 3 0] [energy 99.637628] 
s 14.558898590 _3_ MAC  --- 0 CTS 10 [0.06 0 3] [energy 99.636303] 
s 14.566533397 _0_ RTR  --- 33 message 68 [0.00 0 0] [energy 99.636028] ------- [0:255 -1:255 32 0] 
s 14.569899191 _0_ MAC  --- 10 tcp 80 [0.01 3 0] [energy 99.636028] ------- [0:0 6:0 32 3] [0 0] 0 0
s 14.612899792 _3_ MAC  --- 0 ACK 10 [0.00 0 3] [energy 99.635753] 
r 14.612899792 _3_ MAC  --- 10 tcp 80 [0.01 3 0] [energy 99.634678] ------- [0:0 6:0 32 3] [0 0] 0 0
r 14.612924792 _3_ RTR  --- 10 tcp 80 [0.01 3 0] [energy 99.634678] ------- [0:0 6:0 32 3] [0 0] 0 0
f 14.612924792 _3_ RTR  --- 10 tcp 80 [0.01 3 0] [energy 99.634678] ------- [0:0 6:0 31 6] [0 0] 0 0
s 14.682898590 _3_ MAC  --- 0 RTS 10 [0.07 0 3] [energy 99.634678] 
s 14.693899191 _0_ MAC  --- 0 CTS 10 [0.06 3 0] [energy 99.632928] 
s 14.704899792 _3_ MAC  --- 0 ARP 28 [0.01 0 3] [energy 99.632653] ------- [REPLY 3/3 0/0]
s 14.747900393 _0_ MAC  --- 0 ACK 10 [0.00 3 0] [energy 99.632377] 
r 14.747900393 _0_ MAC  --- 0 ARP 28 [0.01 0 3] [energy 99.631302] ------- [REPLY 3/3 0/0]
s 14.814900994 _3_ MAC  --- 32 message 44 [0.00 -1 3] [energy 99.631302] ------- [3:255 -1:255 32 0] 
r 14.857901494 _1_ MAC  --- 32 message 44 [0.00 -1 3] [energy 99.629627] ------- [3:255 -1:255 32 0] 
r 14.857901494 _5_ MAC  --- 32 message 44 [0.00 -1 3] [energy 99.629627] ------- [3:255 -1:255 32 0] 
r 14.857901595 _2_ MAC  --- 32 message 44 [0.00 -1 3] [energy 99.629627] ------- [3:255 -1:255 32 0] 
r 14.857901595 _0_ MAC  --- 32 message 44 [0.00 -1 3] [energy 99.629627] ------- [3:255 -1:255 32 0] 
r 14.857901595 _4_ MAC  --- 32 message 44 [0.00 -1 3] [energy 99.629627] ------- [3:255 -1:255 32 0] 